 LAMMPS data created from GROMACS
 
       16551 atoms
       17178 bonds
       28749 angles
       40920 dihedrals
        5544 impropers

          19 atom types
          19 bond types
          33 angle types
          33 dihedral types
	   6 improper types
 	  0.000000  50.980000 xlo xhi
	  0.000000  48.060000 ylo yhi
 	  0.000000  300.00000 zlo zhi
 
 Masses

           1   65.38000    
           2   65.38010    
           3   14.00600    
           4   14.00610    
           5   14.00611    
           6   12.01100    
           7   12.01100    
           8   12.01100    
           9   1.008000    
          10   1.008000    
          11   1.008000    
          12   1.008000    
          13   15.99900
          14   12.01100
          15   15.99900    
          16   0.00100000
          17   1.008000
          18   0.0010001
          19   14.00600
 
 Bond Coeffs
 
           1   86.00      1.987    
           2   78.50       2.011200    
           3   80.50       2.011300    
           4   104.48       1.920000    
           5   488.00       1.339    
           6   488.00       1.335100    
           7   488.00       1.335100    
           8   410.00       1.371000    
           9   440.21       1.37100    
          10   440.21       1.37100    
          11   408.39       1.0100    
          12   367.00       0.928    
          13   518.00      1.3460    
          14   317.00      1.4920    
          15   340.000      0.959
          16   553.000      0.960
          17   100.00       1.160000
          18   100.000      0.740000
          19   100.000      1.1000

 Angle Coeffs
 
           1   70.000       112.1700    
           2   75.484       112.1620    
           3   70.000       123.8900    
           4   66.015       123.9220    
           5   66.015       123.9230    
           6   70.000       108.6700    
           7   73.750       108.6510    
           8   73.750       108.6520    
           9   50.000       125.6700    
          10   50.000       125.6700    
          11   49.950       125.6830    
          12   49.954       125.6840    
          13   50.000       109.4400    
          14   70.000       105.2400    
          15   71.254       105.2710    
          16   71.254       105.2720    
          17   50.000       127.5000    
          18   48.684       128.3310    
          19   48.684       128.3320    
          20   35.000       128.0000    
          21   32.477       126.4010    
          22   32.477       126.4020    
          23   47.486       126.0200    
          24   47.486       124.8000    
          25   10.500       109.4700    
          26   45.240       109.4810    
          27   45.240       109.4820    
          28   35.000       109.5000    
          29   44.276       112.7000    
          30   40.240       112.7010
          31   100.000       180.000
          32   100.000       180.000
          33   100.000       180.000
 
 Dihedral Coeffs
 
           1   2.325               2   180  0 
           2   2.325               2   180  0
           3   0.100               2   180  0 
           4   2.325               2   180  0 
           5   2.325               2   180  0 
           6   4.800               2   180  0 
           7   2.325               2   180  0 
           8   2.325               2   180  0 
           9   4.800               2   180  0 
          10   2.325               2   180  0 
          11   2.325               2   180  0 
          12   5.150               2   180  0 
          13   5.150               2   180  0 
          14   4.000               2   180  0 
          15   5.150               2   180  0 
          16   5.150               2   180  0 
          17   5.150               2   180  0 
          18   5.150               2   180  0 
          19   4.000               2   180  0 
          20   5.150               2   180  0 
          21   5.150               2   180  0 
          22   4.800               2   180  0 
          23   5.150               2   180  0 
          24   0.100               2   180  0 
          25   5.000               2   180  0 
          26   0.100               2   180  0 
          27   5.000               2   180  0 
          28   4.150               2   180  0 
          29   5.000               2   180  0 
          30   5.000               2   180  0
          31   0.174               3   0  0
          32   0.174               3   0  0
          33   4.000               2   180  0

Improper Coeffs

	  1  1.1000 -1 2  
	  2  2.0000 -1 2 
	  3  1.1000 -1 2 
	  4  2.0000 -1 2 
	  5  2.0000 -1 2 
	  6  2.0000 -1 2 
	  
 Pair Coeffs
 
           1  0.07870000000   2.462000    
           2  1.2540000E-02   1.960000    
           3  0.0438000000    3.261000    
           4  0.1705440       3.250000    
           5  0.1705440       3.250000    
           6  0.06670000000   3.431000    
           7  0.06670000000   3.431000    
           8  0.06670000000   3.431000    
           9  0.02700000000   2.571000    
          10  1.5750241E-02   2.650000    
          11  1.5750241E-02   2.511000    
          12  0.02790000000   2.571000    
          13  0.1705440       3.210000    
          14  0.05370000      2.800000 # CO2 ---C
          15  0.15700000      3.050000 # CO2 --- O 
          16  0.00000         0.00000  # H
          17  0.0729300       2.958000 # Hcom
          18  0.00000         0.00000  # N
          19  0.071539        3.31000  # Ncom

Atoms
 
    1   1   1    0.69180   8.63219  15.51833 109.49790
    2   1   7   -0.08390   6.51713  14.99630 107.39940
    3   1   3   -0.38790   7.15418  15.88530 108.24120
    4   1   9    0.11280   6.81016  13.94827 107.35530
    5   1  12    0.13110  11.07724  16.24832 105.94950
    6   1   7   -0.08390  10.48026  13.23625 108.77520
    7   1   3   -0.38790   9.26220  13.66229 109.26510
    8   1   9    0.11280  11.24726  13.94726 108.47010
    9   1  12    0.13110   6.63918  11.65023 109.88010
   10   1   1    0.69180  12.83330   6.60712 106.52730
   11   1   7   -0.08390  11.71826   6.42111 103.72170
   12   1   3   -0.38790  11.68528   6.00713 105.03840
   13   1   9    0.11280  12.42928   7.17514 103.38360
   14   1   7   -0.08390   5.54611  15.68631 106.71030
   15   1   3   -0.38790   5.58114  17.00235 107.12520
   16   1   9    0.11280   4.83612  15.35030 105.95550
   17   1  12    0.13110   9.80825   9.74517 106.84830
   18   1  12    0.13110   7.40918  18.83335 103.34760
   19   1   6    0.42910   2.29505  16.97332 105.12540
   20   1   7   -0.08390   3.31308  18.30835 103.72350
   21   1   8   -0.45260   1.86204  16.32234 106.39050
   22   1   3   -0.38790   3.28208  17.89134 105.03840
   23   1   9    0.11280   4.02109  19.06439 103.38570
   24   1  12    0.13110   1.41703  15.33429 106.19130
   25   1  12    0.13110   1.09803  16.93232 106.90830
   26   1   7   -0.08390  13.93635   9.41617 106.33140
   27   1   3   -0.38790  13.98132   8.09715 105.92850
   28   1   9    0.11280  13.21733   9.75521 107.07720
   29   1  12    0.13110  15.83938   6.94015 103.37580
   30   1   2    0.69610  17.03339  15.51929 103.55760
   31   1   7   -0.08390  10.74327   5.73413 103.03560
   32   1   3   -0.38790  10.10622   4.89412 103.92660
   33   1   9    0.11280  10.44723   5.77811 101.98770
   34   1  12    0.13110  15.04134  11.65023 103.14870
   35   1  12    0.13110   6.14013   7.16014 104.24670
   36   1   7   -0.08390   2.33905  17.61935 103.03680
   37   1   3   -0.38790   1.70604  16.77631 103.92660
   38   1   9    0.11280   2.04305  17.66333 101.98890
   39   1  12    0.13110   2.71206  16.20233 107.08320
   40   1   7   -0.08390  14.90936  14.99232 105.64350
   41   1   3   -0.38790  15.55634  15.88433 104.81460
   42   1   9    0.11280  15.19637  13.94125 105.67740
   43   1  12    0.13110  14.56937  19.05339 104.27250
   44   1   2    0.69610  17.03339   9.57718 103.55760
   45   1   7   -0.08390  10.74327  19.36138 103.03560
   46   1   3   -0.38790  10.10622  20.20140 103.92660
   47   1   9    0.11280  10.44626  19.31740 101.98770
   48   1  12    0.13110  15.04037  13.44624 103.14870
   49   1  12    0.13110   6.14013  17.93633 104.24370
   50   1   7   -0.08390   2.33905   7.47712 103.03680
   51   1   3   -0.38790   1.70504   8.32017 103.92660
   52   1   9    0.11280   2.04305   7.43315 101.98980
   53   1  12    0.13110   2.71206   8.89319 107.08320
   54   1   7   -0.08390  14.90936  10.10421 105.64350
   55   1   3   -0.38790  15.55736   9.21118 104.81460
   56   1   9    0.11280  15.19637  11.15421 105.67740
   57   1  12    0.13110  14.56937   6.04213 104.27370
   58   1   1    0.69180   8.63219   9.57718 109.49790
   59   1   7   -0.08390   6.51713  10.09921 107.39940
   60   1   3   -0.38790   7.15418   9.21118 108.24120
   61   1   9    0.11280   6.81016  11.14720 107.35530
   62   1  12    0.13110  11.07826   8.84719 105.95040
   63   1   7   -0.08390  10.47924  11.85922 108.77520
   64   1   3   -0.38790   9.26220  11.43322 109.26510
   65   1   9    0.11280  11.24629  11.14820 108.47010
   66   1  12    0.13110   6.63918  13.44624 109.88010
   67   1   1    0.69180  12.83330  18.48936 106.52730
   68   1   7   -0.08390  11.71826  18.67435 103.72260
   69   1   3   -0.38790  11.68528  19.08838 105.03750
   70   1   9    0.11280  12.42831  17.92037 103.38360
   71   1   7   -0.08390   5.54611   9.40920 106.71030
   72   1   3   -0.38790   5.58114   8.09417 107.12520
   73   1   9    0.11280   4.83512   9.74517 105.95550
   74   1  12    0.13110   9.80825  15.35030 106.84740
   75   1  12    0.13110   7.40816   6.26312 103.34760
   76   1   6    0.42910   2.29505   8.12214 105.12540
   77   1   7   -0.08390   3.31308   6.78813 103.72350
   78   1   8   -0.45260   1.86204   8.77317 106.39140
   79   1   3   -0.38790   3.28208   7.20513 105.03840
   80   1   9    0.11280   4.02109   6.03213 103.38570
   81   1  12    0.13110   1.41703   9.76117 106.19250
   82   1  12    0.13110   1.09903   8.16314 106.90920
   83   1   7   -0.08390  13.93635  15.68030 106.33140
   84   1   3   -0.38790  13.98035  16.99932 105.92850
   85   1   9    0.11280  13.21733  15.34030 107.07720
   86   1  12    0.13110  15.83938  18.15536 103.37580
   87   1   6    0.42910  10.68526  16.98332 107.92410
   88   1   8   -0.45260  10.23826  16.34734 106.65720
   89   1  12    0.13110   9.45725  16.95232 106.16040
   90   1   6    0.42910  10.68526   8.11316 107.92530
   91   1   8   -0.45260  10.23826   8.74818 106.65720
   92   1  12    0.13110   9.45822   8.14315 106.16040
   93   1   6    0.42910  16.95743  12.54725 103.49070
   94   1   8   -0.45260  15.61038  12.54826 102.85860
   95   1   6    0.42910   8.55618  12.54725 109.55490
   96   1   8   -0.45260   7.20618  12.54826 110.17590
   97   1  12    0.13110   7.27316  12.54826 111.27900
   98   1   6    0.42910   6.55817  19.89739 105.00240
   99   1   8   -0.45260   6.98819  18.63336 104.34660
  100   1  12    0.13110   7.76818  18.11936 104.93760
  101   1   6    0.42910  14.97436   8.01015 105.01740
  102   1   8   -0.45260  15.41238   6.74415 104.37360
  103   1  12    0.13110  16.19339   6.24010 104.97240
  104   1   6    0.42910   6.55817   5.19812 105.00360
  105   1   8   -0.45260   6.98819   6.46312 104.34750
  106   1  12    0.13110   7.76920   6.97514 104.93760
  107   1   6    0.42910  14.97436  17.08632 105.01740
  108   1   8   -0.45260  15.41334  18.35136 104.37270
  109   1  12    0.13110  16.19339  18.85637 104.97150
  110   1   1    0.69180   8.63219   3.50207 121.51290
  111   1   7   -0.08390   6.51713   2.98006 119.41410
  112   1   3   -0.38790   7.15418   3.86908 120.25590
  113   1   9    0.11280   6.81016   1.93204 119.37000
  114   1   7   -0.08390  15.18133   4.20608 111.91170
  115   1   3   -0.38790  16.40536   3.73107 111.48690
  116   1   9    0.11280  14.40934   4.49909 111.20100
  117   1  12    0.13110  11.07724   4.23208 117.96420
  118   1   6    0.42910  14.97135   5.06912 108.17820
  119   1   7   -0.08390  14.92338   2.98206 107.52930
  120   1   8   -0.45260  15.40534   6.33411 108.83010
  121   1   3   -0.38790  15.55838   3.86908 108.37320
  122   1   9    0.11280  15.21835   1.93404 107.48340
  123   1  12    0.13110  14.56534   7.04315 108.91020
  124   1  12    0.13110  16.20236   6.82812 108.24510
  125   1   7   -0.08390   2.34605   5.59609 110.15310
  126   1   3   -0.38790   1.70404   4.76109 109.26210
  127   1   9    0.11280   2.05505   5.63512 111.20190
  128   1  12    0.13110   2.68806   4.22108 106.08930
  129   1   7   -0.08390  10.48026   1.22002 120.78990
  130   1   3   -0.38790   9.26220   1.64603 121.27980
  131   1   9    0.11280  11.24726   1.93104 120.48510
  132   1   6    0.42910  10.69627   4.95708 105.25860
  133   1   8   -0.45260  10.26324   4.31109 106.52520
  134   1  12    0.13110   9.81926   3.32106 106.32930
  135   1  12    0.13110   9.49722   4.92108 107.04030
  136   1   7   -0.08390   5.54611   3.67007 118.72500
  137   1   3   -0.38790   5.58114   4.98611 119.14020
  138   1   9    0.11280   4.83612   3.33407 117.97020
  139   1   7   -0.08390  11.72927   6.67215 109.46610
  140   1   3   -0.38790  11.68125   7.07214 108.14610
  141   1   9    0.11280  12.44932   5.92812 109.80600
  142   1  12    0.13110   7.40918   6.81716 115.36260
  143   1   6    0.42910   2.29505   4.95708 117.14040
  144   1   7   -0.08390   3.31308   6.29211 115.73850
  145   1   8   -0.45260   1.86204   4.30608 118.40520
  146   1   3   -0.38790   3.28208   5.87510 117.05340
  147   1   9    0.11280   4.02109   7.04815 115.40040
  148   1  12    0.13110   1.41703   3.31806 118.20630
  149   1  12    0.13110   1.09803   4.91608 118.92300
  150   1   7   -0.08390  13.95032   3.67107 106.84230
  151   1   3   -0.38790  13.98336   4.98611 107.26020
  152   1   9    0.11280  13.24032   3.33506 106.08630
  153   1  12    0.13110  15.80936   6.13912 109.83690
  154   1   1    0.69180  17.03339   3.50307 115.57230
  155   1   7   -0.08390  15.18037   4.20908 113.28780
  156   1   3   -0.38790  16.40440   3.73507 113.71560
  157   1   9    0.11280  14.40832   4.50409 113.99850
  158   1   2    0.69610   8.63122   3.50207 103.69050
  159   1  12    0.13110  11.11226   4.19508 107.21820
  160   1   7   -0.08390   6.50214   2.97406 105.77130
  161   1   3   -0.38790   7.14617   3.86508 104.93760
  162   1   9    0.11280   6.79018   1.92404 105.80940
  163   1   7   -0.08390   2.33905   5.60311 115.05150
  164   1   3   -0.38790   1.70604   4.76010 115.94130
  165   1   9    0.11280   2.04305   5.64709 114.00360
  166   1  12    0.13110   2.71206   4.18608 119.09820
  167   1   7   -0.08390  10.48123   1.22002 104.40060
  168   1   3   -0.38790   9.26021   1.64603 103.91850
  169   1   9    0.11280  11.25129   1.93104 104.70150
  170   1   7   -0.08390  14.90936   2.97606 117.65820
  171   1   3   -0.38790  15.55634   3.86808 116.82930
  172   1   9    0.11280  15.19637   1.92504 117.69210
  173   1  12    0.13110  14.56937   7.03715 116.28750
  174   1   7   -0.08390  10.74327   7.34514 115.05060
  175   1   3   -0.38790  10.10622   8.18516 115.94130
  176   1   9    0.11280  10.44626   7.30116 114.00270
  177   1  12    0.13110   6.14013   5.92014 116.25840
  178   1   6    0.42910   8.71223   9.49519 112.60260
  179   1   7   -0.08390   6.77718   8.74116 113.28870
  180   1   8   -0.45260  10.06722  10.10820 112.60470
  181   1   3   -0.38790   8.00218   9.21219 113.71560
  182   1   9    0.11280   6.00315   8.44917 113.99850
  183   1  12    0.13110  10.62525   9.83019 111.69570
  184   1  12    0.13110  10.00223  11.21223 112.62870
  185   1   6    0.42910   6.56816   7.87716 108.17730
  186   1   8   -0.45260   7.00618   6.61313 108.82710
  187   1  12    0.13110   6.16812   5.90212 108.91110
  188   1  12    0.13110   7.80218   6.11912 108.23910
  189   1   7   -0.08390  10.75627   7.36014 110.15400
  190   1   3   -0.38790  10.10526   8.18616 109.26120
  191   1   9    0.11280  10.47027   7.32813 111.20490
  192   1  12    0.13110  15.02834   1.42903 109.97400
  193   1   7   -0.08390   6.77917   8.74217 111.91290
  194   1   3   -0.38790   8.00417   9.21416 111.48780
  195   1   9    0.11280   6.00713   8.45018 111.20100
  196   1  12    0.13110  10.64223   9.79318 113.49060
  197   1   1    0.69180  12.83330   6.47312 118.54200
  198   1   7   -0.08390  11.71826   6.65811 115.73730
  199   1   3   -0.38790  11.68528   7.07214 117.05220
  200   1   9    0.11280  12.42831   5.90413 115.39860
  201   1   1    0.69180   4.43011   6.47312 106.66020
  202   1  12    0.13110   7.41417   6.80913 109.83210
  203   1  12    0.13110   9.80825   3.33407 118.86210
  204   1   7   -0.08390   5.52812   3.66207 106.45950
  205   1   3   -0.38790   5.56916   4.98010 106.05240
  206   1   9    0.11280   4.81211   3.32206 107.20740
  207   1   7   -0.08390   3.31908   6.28413 109.46520
  208   1   3   -0.38790   3.27908   5.87510 108.14820
  209   1   9    0.11280   4.03409   7.03412 109.80300
  210   1  12    0.13110   1.41803   3.32306 106.98720
  211   1   7   -0.08390  13.93635   3.66407 118.34610
  212   1   3   -0.38790  13.98035   4.98308 117.94320
  213   1   9    0.11280  13.21733   3.32406 119.09220
  214   1  12    0.13110  15.83938   6.13912 115.39050
  215   1   6    0.42910  10.68526   4.96708 119.93910
  216   1   8   -0.45260  10.23826   4.33109 118.67220
  217   1  12    0.13110   9.45725   4.93608 118.17510
  218   1   6    0.42910   2.28805   4.96208 108.06120
  219   1   8   -0.45260   1.84705   4.32008 106.79430
  220   1  12    0.13110   1.06603   4.92209 106.29450
  221   1   6    0.42910   8.55322   0.53201 103.63050
  222   1   6    0.42910  16.95141   0.53201 109.66890
  223   1   8   -0.45260  15.59335   0.53201 110.27700
  224   1  12    0.13110  15.64836   0.53301 111.38100
  225   1   6    0.42910   6.55817   7.88115 117.01740
  226   1   8   -0.45260   6.98819   6.61712 116.36130
  227   1  12    0.13110   7.76818   6.10312 116.95230
  228   1   6    0.42910  14.97436   5.07008 117.03240
  229   1   8   -0.45260  15.41334   6.33512 116.38740
  230   1  12    0.13110  16.19339   6.84013 116.98620
  231   1   1    0.69180   8.63219  15.51833 133.52760
  232   1   6    0.42910   6.56816   5.20312 120.19200
  233   1   7   -0.08390   6.51713  14.99630 131.42880
  234   1   8   -0.45260   7.00618   6.46711 120.84300
  235   1   3   -0.38790   7.15418  15.88530 132.27090
  236   1   9    0.11280   6.81016  13.94827 131.38500
  237   1  12    0.13110   6.16914   7.17716 120.92580
  238   1  12    0.13110   7.80218   6.96015 120.25500
  239   1   7   -0.08390  15.18133  16.22232 123.92670
  240   1   3   -0.38790  16.40536  15.74730 123.50160
  241   1   9    0.11280  14.40934  16.51532 123.21570
  242   1   7   -0.08390  10.75627   5.72010 122.16870
  243   1   3   -0.38790  10.10526   4.89412 121.27590
  244   1   9    0.11280  10.47027   5.75211 123.21960
  245   1  12    0.13110  11.07724  16.24832 129.97890
  246   1  12    0.13110  15.02936  11.65023 121.99080
  247   1   6    0.42910  14.97135  17.08536 120.19290
  248   1   7   -0.08390  14.92338  14.99828 119.54400
  249   1   8   -0.45260  15.40534  18.35035 120.84480
  250   1   3   -0.38790  15.55838  15.88530 120.38790
  251   1   9    0.11280  15.21835  13.95029 119.49810
  252   1  12    0.13110  14.56534  19.05939 120.92490
  253   1  12    0.13110  16.20236  18.84436 120.26010
  254   1   7   -0.08390   6.77917   4.33808 123.92760
  255   1   3   -0.38790   8.00417   3.86608 123.50370
  256   1   9    0.11280   6.00713   4.63009 123.21660
  257   1  12    0.13110  10.64126   3.28606 125.50530
  258   1   7   -0.08390   2.34605  17.61233 122.16780
  259   1   3   -0.38790   1.70404  16.77732 121.27680
  260   1   9    0.11280   2.05505  17.65136 123.21660
  261   1  12    0.13110   2.68806  16.23732 118.10430
  262   1   7   -0.08390  10.48026  13.23625 132.80460
  263   1   3   -0.38790   9.26220  13.66229 133.29480
  264   1   9    0.11280  11.24726  13.94726 132.49980
  265   1  12    0.13110   6.63918  11.65023 133.90950
  266   1   1    0.69180  12.83330   6.60712 130.55700
  267   1   6    0.42910  10.69627  16.97332 117.27330
  268   1   7   -0.08390  11.71826   6.42111 127.75110
  269   1   8   -0.45260  10.26324  16.32734 118.54020
  270   1   3   -0.38790  11.68528   6.00713 129.06810
  271   1   9    0.11280  12.42928   7.17514 127.41330
  272   1  12    0.13110   9.81926  15.33732 118.34430
  273   1  12    0.13110   9.49722  16.93732 119.05500
  274   1   1    0.69180   4.43011   6.60712 118.67520
  275   1   7   -0.08390   5.54611  15.68631 130.74000
  276   1   3   -0.38790   5.58114  17.00235 131.15490
  277   1   9    0.11280   4.83612  15.35030 129.98490
  278   1  12    0.13110   7.41417   6.27110 121.84770
  279   1   7   -0.08390  11.72927  18.68839 121.48080
  280   1   3   -0.38790  11.68125  19.08838 120.16110
  281   1   9    0.11280  12.44932  17.94436 121.82070
  282   1  12    0.13110   9.80825   9.74517 130.87800
  283   1   7   -0.08390   5.52812   9.41819 118.47510
  284   1   3   -0.38790   5.56916   8.10018 118.06710
  285   1   9    0.11280   4.81211   9.75819 119.22210
  286   1  12    0.13110   7.40918  18.83335 127.37730
  287   1   6    0.42910   2.29505  16.97332 129.15510
  288   1   7   -0.08390   3.31308  18.30835 127.75320
  289   1   8   -0.45260   1.86204  16.32234 130.41990
  290   1   3   -0.38790   3.28208  17.89134 129.06810
  291   1   9    0.11280   4.02109  19.06439 127.41540
  292   1  12    0.13110   1.41703  15.33429 130.22100
  293   1  12    0.13110   1.09803  16.93232 130.93800
  294   1   7   -0.08390  13.95032  15.68732 118.85700
  295   1   3   -0.38790  13.98336  17.00235 119.27520
  296   1   9    0.11280  13.24032  15.35131 118.10130
  297   1  12    0.13110  15.80936  18.15536 121.85190
  298   1   7   -0.08390   3.31908   6.79514 121.47990
  299   1   3   -0.38790   3.27908   7.20412 120.16290
  300   1   9    0.11280   4.03409   6.04611 121.81890
  301   1  12    0.13110   1.41803   9.75718 119.00220
  302   1   7   -0.08390  13.93635   9.41617 130.36110
  303   1   3   -0.38790  13.98132   8.09715 129.95790
  304   1   9    0.11280  13.21733   9.75521 131.10690
  305   1  12    0.13110  15.83938   6.94015 127.40520
  306   1   1    0.69180  17.03339  15.51929 127.58730
  307   1   7   -0.08390  15.18037  16.22530 125.30250
  308   1   3   -0.38790  16.40440  15.75129 125.73030
  309   1   9    0.11280  14.40832  16.52032 126.01350
  310   1   1    0.69180   8.63122  15.51833 115.70550
  311   1   7   -0.08390  10.74327   5.73413 127.06530
  312   1   3   -0.38790  10.10622   4.89412 127.95630
  313   1   9    0.11280  10.44723   5.77811 126.01740
  314   1  12    0.13110  11.11226  16.21131 119.23320
  315   1  12    0.13110  15.04134  11.65023 127.17840
  316   1   7   -0.08390   6.50214  14.99030 117.78630
  317   1   3   -0.38790   7.14617  15.88131 116.95230
  318   1   9    0.11280   6.79018  13.94029 117.82410
  319   1  12    0.13110   6.14013   7.16014 128.27610
  320   1   6    0.42910   8.71223   3.58507 124.61850
  321   1   7   -0.08390   6.77718   4.33808 125.30460
  322   1   8   -0.45260  10.06722   2.97106 124.61940
  323   1   3   -0.38790   8.00218   3.86708 125.73150
  324   1   9    0.11280   6.00315   4.63009 126.01350
  325   1  12    0.13110  10.62525   3.25006 123.71070
  326   1  12    0.13110  10.00324   1.86804 124.64340
  327   1   7   -0.08390   2.33905  17.61935 127.06620
  328   1   3   -0.38790   1.70604  16.77631 127.95630
  329   1   9    0.11280   2.04305  17.66333 126.01830
  330   1  12    0.13110   2.71206  16.20233 131.11290
  331   1   7   -0.08390  10.48123  13.23625 116.41650
  332   1   3   -0.38790   9.26021  13.66229 115.93350
  333   1   9    0.11280  11.25129  13.94726 116.71620
  334   1  12    0.13110   6.63515  11.65023 115.31340
  335   1   7   -0.08390  14.90936  14.99232 129.67290
  336   1   3   -0.38790  15.55634  15.88433 128.84400
  337   1   9    0.11280  15.19637  13.94125 129.70710
  338   1  12    0.13110  14.56937  19.05339 128.30220
  339   1   1    0.69180  17.03339   9.57718 127.58730
  340   1   7   -0.08390  15.18133   8.87016 125.30340
  341   1   3   -0.38790  16.40440   9.34417 125.73150
  342   1   9    0.11280  14.40832   8.57515 126.01230
  343   1   1    0.69180   8.63122   9.57819 115.70550
  344   1   7   -0.08390  10.74327  19.36138 127.06530
  345   1   3   -0.38790  10.10622  20.20140 127.95630
  346   1   9    0.11280  10.44626  19.31740 126.01740
  347   1  12    0.13110  11.11226   8.88617 119.23320
  348   1  12    0.13110  15.04037  13.44624 127.17840
  349   1   7   -0.08390   6.50117  10.10618 117.78630
  350   1   3   -0.38790   7.14515   9.21517 116.95230
  351   1   9    0.11280   6.79018  11.15623 117.82410
  352   1  12    0.13110   6.14013  17.93633 128.27310
  353   1   6    0.42910   8.71223  21.51143 124.61760
  354   1   7   -0.08390   6.77718  20.75740 125.30340
  355   1   8   -0.45260  10.06722  22.12444 124.61940
  356   1   3   -0.38790   8.00218  21.22843 125.73030
  357   1   9    0.11280   6.00315  20.46642 126.01350
  358   1  12    0.13110  10.62525  21.84643 123.71070
  359   1  12    0.13110  10.00223  23.22847 124.64340
  360   1   7   -0.08390   2.33905   7.47712 127.06620
  361   1   3   -0.38790   1.70504   8.32017 127.95630
  362   1   9    0.11280   2.04305   7.43315 126.01950
  363   1  12    0.13110   2.71206   8.89319 131.11290
  364   1   7   -0.08390  10.48123  11.86022 116.41530
  365   1   3   -0.38790   9.26021  11.43423 115.93350
  366   1   9    0.11280  11.25129  11.14921 116.71620
  367   1  12    0.13110   6.63515  13.44624 115.31340
  368   1   7   -0.08390  14.90936  10.10421 129.67290
  369   1   3   -0.38790  15.55736   9.21118 128.84400
  370   1   9    0.11280  15.19637  11.15421 129.70710
  371   1  12    0.13110  14.56937   6.04213 128.30310
  372   1   1    0.69180   8.63219   9.57718 133.52760
  373   1   6    0.42910   6.56816  19.89340 120.19200
  374   1   7   -0.08390   6.51713  10.09921 131.42880
  375   1   8   -0.45260   7.00618  18.62937 120.84180
  376   1   3   -0.38790   7.15418   9.21118 132.27090
  377   1   9    0.11280   6.81016  11.14720 131.38500
  378   1  12    0.13110   6.16812  17.91836 120.92580
  379   1  12    0.13110   7.80218  18.13536 120.25410
  380   1   7   -0.08390  15.18133   8.87319 123.92760
  381   1   3   -0.38790  16.40536   9.34816 123.50250
  382   1   9    0.11280  14.40934   8.58014 123.21570
  383   1   7   -0.08390  10.75627  19.37638 122.16870
  384   1   3   -0.38790  10.10526  20.20240 121.27590
  385   1   9    0.11280  10.47027  19.34437 123.21960
  386   1  12    0.13110  11.07826   8.84719 129.98010
  387   1  12    0.13110  15.02834  13.44528 121.98870
  388   1   6    0.42910  14.97038   8.01015 120.19290
  389   1   7   -0.08390  14.92338  10.09820 119.54400
  390   1   8   -0.45260  15.40534   6.74612 120.84480
  391   1   3   -0.38790  15.55838   9.21017 120.38790
  392   1   9    0.11280  15.21835  11.14623 119.49810
  393   1  12    0.13110  14.56636   6.03713 120.92400
  394   1  12    0.13110  16.20338   6.25212 120.26010
  395   1   7   -0.08390   6.77917  20.75841 123.92760
  396   1   3   -0.38790   8.00417  21.23040 123.50250
  397   1   9    0.11280   6.00713  20.46642 123.21570
  398   1  12    0.13110  10.64223  21.80942 125.50530
  399   1   7   -0.08390   2.34605   7.48313 122.16780
  400   1   3   -0.38790   1.70404   8.31916 121.27680
  401   1   9    0.11280   2.05505   7.44516 123.21780
  402   1  12    0.13110   2.68806   8.85916 118.10430
  403   1   7   -0.08390  10.47924  11.85922 132.80460
  404   1   3   -0.38790   9.26220  11.43322 133.29480
  405   1   9    0.11280  11.24629  11.14820 132.49980
  406   1  12    0.13110   6.63918  13.44624 133.90950
  407   1   1    0.69180  12.83330  18.48936 130.55700
  408   1   6    0.42910  10.69627   8.12214 117.27330
  409   1   7   -0.08390  11.71826  18.67435 127.75230
  410   1   8   -0.45260  10.26324   8.77019 118.54020
  411   1   3   -0.38790  11.68528  19.08838 129.06720
  412   1   9    0.11280  12.42831  17.92037 127.41330
  413   1  12    0.13110   9.81926   9.75920 118.34430
  414   1  12    0.13110   9.49824   8.16016 119.05500
  415   1   1    0.69180   4.43011  18.48936 118.67520
  416   1   7   -0.08390   5.54611   9.40920 130.74000
  417   1   3   -0.38790   5.58114   8.09417 131.15490
  418   1   9    0.11280   4.83512   9.74517 129.98490
  419   1  12    0.13110   7.41417  18.82537 121.84680
  420   1   7   -0.08390  11.72927   6.40813 121.48080
  421   1   3   -0.38790  11.68125   6.00810 120.16200
  422   1   9    0.11280  12.44932   7.15115 121.82070
  423   1  12    0.13110   9.80825  15.35030 130.87680
  424   1   7   -0.08390   5.52812  15.67828 118.47420
  425   1   3   -0.38790   5.56916  16.99634 118.06710
  426   1   9    0.11280   4.81211  15.33828 119.22210
  427   1  12    0.13110   7.40816   6.26312 127.37730
  428   1   6    0.42910   2.29505   8.12214 129.15510
  429   1   7   -0.08390   3.31308   6.78813 127.75320
  430   1   8   -0.45260   1.86204   8.77317 130.42110
  431   1   3   -0.38790   3.28208   7.20513 129.06810
  432   1   9    0.11280   4.02109   6.03213 127.41540
  433   1  12    0.13110   1.41703   9.76117 130.22190
  434   1  12    0.13110   1.09903   8.16314 130.93890
  435   1   7   -0.08390  13.95032   9.40920 118.85700
  436   1   3   -0.38790  13.98336   8.09417 119.27520
  437   1   9    0.11280  13.24032   9.74517 118.10220
  438   1  12    0.13110  15.80936   6.94015 121.85190
  439   1   7   -0.08390   3.31908  18.30138 121.47990
  440   1   3   -0.38790   3.27908  17.89134 120.16290
  441   1   9    0.11280   4.03409  19.05036 121.81770
  442   1  12    0.13110   1.41803  15.33929 119.00220
  443   1   7   -0.08390  13.93635  15.68030 130.36110
  444   1   3   -0.38790  13.98035  16.99932 129.95790